;Include forcefield parameters
#include "../../INDATA/charmm_CAM2020.ff/forcefield.itp"

;EXTRA inludes if needed
#include "../../INDATA/extra.itp"

;Include component topologies
#include "../../INDATA/SPMP4.itp"
#include "../../INDATA/hv6apo_der2023chm_D580R_A.itp"
#include "../../INDATA/hv6apo_der2023chm_D580R_B.itp"
#include "../../INDATA/hv6apo_der2023chm_D580R_C.itp"
#include "../../INDATA/hv6apo_der2023chm_D580R_D.itp"
#include "../../INDATA/charmm_CAM2020.ff/popc.itp"
#include "../../INDATA/charmm_CAM2020.ff/ions.itp"
#include "../../INDATA/charmm_CAM2020.ff/tip3p.itp"



[ system ]
; Name
SPMP4_hv6apo_der2023chm_D580R_A_hv6apo_der2023chm_D580R_B_hv6apo_der2023chm_D580R_C_hv6apo_der2023chm_D580R_D_POPC_SOL_CL_NA_CL

[ molecules ]
; Compound        #mols
SPMP4 1
hv6apo_der2023chm_D580R_A 1
hv6apo_der2023chm_D580R_B 1
hv6apo_der2023chm_D580R_C 1
hv6apo_der2023chm_D580R_D 1
POPC 584
SOL 61520
CL 158
NA 166
CL 4

[intermolecular_interactions]
[bonds]
8793 18658 6 1.07054 1000.0

8793 18710 6 1.31897 1000.0

8793 18756 6 1.75355 1000.0

8845 18658 6 0.699793 1000.0

8845 18710 6 1.01218 1000.0

8845 18756 6 1.4475 1000.0

8891 18658 6 0.788618 1000.0

8891 18710 6 1.09146 1000.0

8891 18756 6 1.42687 1000.0

8793 28523 6 1.50636 1000.0

8793 28575 6 1.40609 1000.0

8793 28621 6 1.65271 1000.0

8845 28523 6 1.40729 1000.0

8845 28575 6 1.42546 1000.0

8845 28621 6 1.73059 1000.0

8891 28523 6 1.6556 1000.0

8891 28575 6 1.73292 1000.0

8891 28621 6 2.01462 1000.0

8793 38388 6 1.0596 1000.0

8793 38440 6 0.687007 1000.0

8793 38486 6 0.780285 1000.0

8845 38388 6 1.31018 1000.0

8845 38440 6 1.0032 1000.0

8845 38486 6 1.08544 1000.0

8891 38388 6 1.74769 1000.0

8891 38440 6 1.44157 1000.0

8891 38486 6 1.42272 1000.0

18658 28523 6 1.06518 1000.0

18658 28575 6 1.31641 1000.0

18658 28621 6 1.75165 1000.0

18710 28523 6 0.696101 1000.0

18710 28575 6 1.01179 1000.0

18710 28621 6 1.44683 1000.0

18756 28523 6 0.789351 1000.0

18756 28575 6 1.09357 1000.0

18756 28621 6 1.42757 1000.0

18658 38388 6 1.50785 1000.0

18658 38440 6 1.40962 1000.0

18658 38486 6 1.65878 1000.0

18710 38388 6 1.41107 1000.0

18710 38440 6 1.4311 1000.0

18710 38486 6 1.73787 1000.0

18756 38388 6 1.6597 1000.0

18756 38440 6 1.73814 1000.0

18756 38486 6 2.02077 1000.0

28523 38388 6 1.06741 1000.0

28523 38440 6 1.31806 1000.0

28523 38486 6 1.75387 1000.0

28575 38388 6 0.696714 1000.0

28575 38440 6 1.01263 1000.0

28575 38486 6 1.44836 1000.0

28621 38388 6 0.788682 1000.0

28621 38440 6 1.09468 1000.0

28621 38486 6 1.42976 1000.0

