;Include forcefield parameters
#include "../../INDATA/charmm_CAM2020.ff/forcefield.itp"

;EXTRA inludes if needed
#include "../../INDATA/extra.itp"

;Include component topologies
#include "../../INDATA/SPMP4.itp"
#include "../../INDATA/hv6apo_der2023chm_A.itp"
#include "../../INDATA/hv6apo_der2023chm_B.itp"
#include "../../INDATA/hv6apo_der2023chm_C.itp"
#include "../../INDATA/hv6apo_der2023chm_D.itp"
#include "../../INDATA/charmm_CAM2020.ff/popc.itp"
#include "../../INDATA/charmm_CAM2020.ff/ions.itp"
#include "../../INDATA/charmm_CAM2020.ff/tip3p.itp"


[ system ]
; Name
SPMP4_SPMP4_hv6apo_der2023chm_A_hv6apo_der2023chm_B_hv6apo_der2023chm_C_hv6apo_der2023chm_D_POPC_SOL_CL_NA_CL_CL

[ molecules ]
; Compound        #mols
SPMP4 1
SPMP4 1
hv6apo_der2023chm_A 1
hv6apo_der2023chm_B 1
hv6apo_der2023chm_C 1
hv6apo_der2023chm_D 1
POPC 577
SOL 61515
CL 150
NA 166
CL 4
CL 4

[intermolecular_interactions]
[bonds]
8837 18690 6 1.07092 1000.0

8837 18742 6 1.3201 1000.0

8837 18788 6 1.75455 1000.0

8889 18690 6 0.699056 1000.0

8889 18742 6 1.01231 1000.0

8889 18788 6 1.44723 1000.0

8935 18690 6 0.788517 1000.0

8935 18742 6 1.09229 1000.0

8935 18788 6 1.42704 1000.0

8837 28543 6 1.50733 1000.0

8837 28595 6 1.40696 1000.0

8837 28641 6 1.65313 1000.0

8889 28543 6 1.40713 1000.0

8889 28595 6 1.4254 1000.0

8889 28641 6 1.73034 1000.0

8935 28543 6 1.65577 1000.0

8935 28595 6 1.733 1000.0

8935 28641 6 2.01441 1000.0

8837 38396 6 1.061 1000.0

8837 38448 6 0.687426 1000.0

8837 38494 6 0.780563 1000.0

8889 38396 6 1.31104 1000.0

8889 38448 6 1.00347 1000.0

8889 38494 6 1.08632 1000.0

8935 38396 6 1.74831 1000.0

8935 38448 6 1.44146 1000.0

8935 38494 6 1.42303 1000.0

18690 28543 6 1.06546 1000.0

18690 28595 6 1.31657 1000.0

18690 28641 6 1.75162 1000.0

18742 28543 6 0.695457 1000.0

18742 28595 6 1.01126 1000.0

18742 28641 6 1.44626 1000.0

18788 28543 6 0.789697 1000.0

18788 28595 6 1.09403 1000.0

18788 28641 6 1.42809 1000.0

18690 38396 6 1.50837 1000.0

18690 38448 6 1.40952 1000.0

18690 38494 6 1.65923 1000.0

18742 38396 6 1.41116 1000.0

18742 38448 6 1.4311 1000.0

18742 38494 6 1.7387 1000.0

18788 38396 6 1.66026 1000.0

18788 38448 6 1.7385 1000.0

18788 38494 6 2.02181 1000.0

28543 38396 6 1.06744 1000.0

28543 38448 6 1.31816 1000.0

28543 38494 6 1.75462 1000.0

28595 38396 6 0.696509 1000.0

28595 38448 6 1.01267 1000.0

28595 38494 6 1.44902 1000.0

28641 38396 6 0.787929 1000.0

28641 38448 6 1.09436 1000.0

28641 38494 6 1.42993 1000.0

