;Include forcefield parameters
#include "../../INDATA/charmm_CAM2020.ff/forcefield.itp"

;EXTRA inludes if needed
#include "../../INDATA/extra.itp"

;Include component topologies
#include "../../INDATA/SPMP4.itp"
#include "../../INDATA/hv6apo_der2023chm_A.itp"
#include "../../INDATA/hv6apo_der2023chm_B.itp"
#include "../../INDATA/hv6apo_der2023chm_C.itp"
#include "../../INDATA/hv6apo_der2023chm_D.itp"
#include "../../INDATA/charmm_CAM2020.ff/popc.itp"
#include "../../INDATA/charmm_CAM2020.ff/ions.itp"
#include "../../INDATA/charmm_CAM2020.ff/tip3p.itp"


[ system ]
; Name
SPMP4_SPMP4_hv6apo_der2023chm_A_hv6apo_der2023chm_B_hv6apo_der2023chm_C_hv6apo_der2023chm_D_POPC_SOL_CL_NA_CL_CL

[ molecules ]
; Compound        #mols
SPMP4 1
SPMP4 1
hv6apo_der2023chm_A 1
hv6apo_der2023chm_B 1
hv6apo_der2023chm_C 1
hv6apo_der2023chm_D 1
POPC 583
SOL 61504
CL 150
NA 166
CL 4
CL 4

[intermolecular_interactions]
[bonds]
8837 18690 6 1.07054 1000.0

8837 18742 6 1.31961 1000.0

8837 18788 6 1.75422 1000.0

8889 18690 6 0.699015 1000.0

8889 18742 6 1.01248 1000.0

8889 18788 6 1.4475 1000.0

8935 18690 6 0.787891 1000.0

8935 18742 6 1.09146 1000.0

8935 18788 6 1.42615 1000.0

8837 28543 6 1.50636 1000.0

8837 28595 6 1.40619 1000.0

8837 28641 6 1.65271 1000.0

8889 28543 6 1.40719 1000.0

8889 28595 6 1.42546 1000.0

8889 28641 6 1.73098 1000.0

8935 28543 6 1.65466 1000.0

8935 28595 6 1.73163 1000.0

8935 28641 6 2.01376 1000.0

8837 38396 6 1.0596 1000.0

8837 38448 6 0.687006 1000.0

8837 38494 6 0.780286 1000.0

8889 38396 6 1.31082 1000.0

8889 38448 6 1.00405 1000.0

8889 38494 6 1.08638 1000.0

8935 38396 6 1.74703 1000.0

8935 38448 6 1.44108 1000.0

8935 38494 6 1.42247 1000.0

18690 28543 6 1.06518 1000.0

18690 28595 6 1.31576 1000.0

18690 28641 6 1.75165 1000.0

18742 28543 6 0.695329 1000.0

18742 28595 6 1.01041 1000.0

18742 28641 6 1.44633 1000.0

18788 28543 6 0.79008 1000.0

18788 28595 6 1.09357 1000.0

18788 28641 6 1.42854 1000.0

18690 38396 6 1.50785 1000.0

18690 38448 6 1.40962 1000.0

18690 38494 6 1.65878 1000.0

18742 38396 6 1.41098 1000.0

18742 38448 6 1.43132 1000.0

18742 38494 6 1.73826 1000.0

18788 38396 6 1.66064 1000.0

18788 38448 6 1.73904 1000.0

18788 38494 6 2.02163 1000.0

28543 38396 6 1.06741 1000.0

28543 38448 6 1.31806 1000.0

28543 38494 6 1.75387 1000.0

28595 38396 6 0.697488 1000.0

28595 38448 6 1.01316 1000.0

28595 38494 6 1.44885 1000.0

28641 38396 6 0.788681 1000.0

28641 38448 6 1.09468 1000.0

28641 38494 6 1.42975 1000.0

