;Include forcefield parameters
#include "../../INDATA/charmm_CAM2020.ff/forcefield.itp"

;EXTRA inludes if needed
#include "../../INDATA/extra.itp"

;Include component topologies
#include "../../INDATA/SPMP4.itp"
#include "../../INDATA/hv6apo_der2023chm_A.itp"
#include "../../INDATA/hv6apo_der2023chm_B.itp"
#include "../../INDATA/hv6apo_der2023chm_C.itp"
#include "../../INDATA/hv6apo_der2023chm_D.itp"
#include "../../INDATA/charmm_CAM2020.ff/popc.itp"
#include "../../INDATA/charmm_CAM2020.ff/ions.itp"
#include "../../INDATA/charmm_CAM2020.ff/tip3p.itp"



[ system ]
; Name
SPMP4_SPMP4_hv6apo_der2023chm_A_hv6apo_der2023chm_B_hv6apo_der2023chm_C_hv6apo_der2023chm_D_POPC_SOL_CL_NA_CL_CL

[ molecules ]
; Compound        #mols
SPMP4 1
SPMP4 1
hv6apo_der2023chm_A 1
hv6apo_der2023chm_B 1
hv6apo_der2023chm_C 1
hv6apo_der2023chm_D 1
POPC 582
SOL 61508
CL 150
NA 166
CL 4
CL 4

[intermolecular_interactions]
[bonds]
8837 18690 6 1.07063 1000.0

8837 18742 6 1.31935 1000.0

8837 18788 6 1.75413 1000.0

8889 18690 6 0.699154 1000.0

8889 18742 6 1.01214 1000.0

8889 18788 6 1.44738 1000.0

8935 18690 6 0.788069 1000.0

8935 18742 6 1.09145 1000.0

8935 18788 6 1.42638 1000.0

8837 28543 6 1.50704 1000.0

8837 28595 6 1.40647 1000.0

8837 28641 6 1.65289 1000.0

8889 28543 6 1.40756 1000.0

8889 28595 6 1.42554 1000.0

8889 28641 6 1.73074 1000.0

8935 28543 6 1.65549 1000.0

8935 28595 6 1.73249 1000.0

8935 28641 6 2.01427 1000.0

8837 38396 6 1.0602 1000.0

8837 38448 6 0.687242 1000.0

8837 38494 6 0.780155 1000.0

8889 38396 6 1.31095 1000.0

8889 38448 6 1.00381 1000.0

8889 38494 6 1.08593 1000.0

8935 38396 6 1.74795 1000.0

8935 38448 6 1.44168 1000.0

8935 38494 6 1.42278 1000.0

18690 28543 6 1.06554 1000.0

18690 28595 6 1.31624 1000.0

18690 28641 6 1.75159 1000.0

18742 28543 6 0.69559 1000.0

18742 28595 6 1.01083 1000.0

18742 28641 6 1.44612 1000.0

18788 28543 6 0.789712 1000.0

18788 28595 6 1.0937 1000.0

18788 28641 6 1.42801 1000.0

18690 38396 6 1.50814 1000.0

18690 38448 6 1.40961 1000.0

18690 38494 6 1.65865 1000.0

18742 38396 6 1.41087 1000.0

18742 38448 6 1.43089 1000.0

18742 38494 6 1.73781 1000.0

18788 38396 6 1.66032 1000.0

18788 38448 6 1.73858 1000.0

18788 38494 6 2.02125 1000.0

28543 38396 6 1.06773 1000.0

28543 38448 6 1.31837 1000.0

28543 38494 6 1.75432 1000.0

28595 38396 6 0.697008 1000.0

28595 38448 6 1.01283 1000.0

28595 38494 6 1.44876 1000.0

28641 38396 6 0.788454 1000.0

28641 38448 6 1.09457 1000.0

28641 38494 6 1.42993 1000.0

