;Include forcefield parameters
#include "../../INDATA/charmm_CAM2020.ff/forcefield.itp"

;EXTRA inludes if needed
#include "../../INDATA/extra.itp"

;Include component topologies
#include "../../INDATA/SPMP4.itp"
#include "../../INDATA/hv6apo_der2023chm_D580R_A.itp"
#include "../../INDATA/hv6apo_der2023chm_D580R_B.itp"
#include "../../INDATA/hv6apo_der2023chm_D580R_C.itp"
#include "../../INDATA/hv6apo_der2023chm_D580R_D.itp"
#include "../../INDATA/charmm_CAM2020.ff/popc.itp"
#include "../../INDATA/charmm_CAM2020.ff/ions.itp"
#include "../../INDATA/charmm_CAM2020.ff/tip3p.itp"



[ system ]
; Name
SPMP4_hv6apo_der2023chm_D580R_A_hv6apo_der2023chm_D580R_B_hv6apo_der2023chm_D580R_C_hv6apo_der2023chm_D580R_D_POPC_SOL_CL_NA_CL

[ molecules ]
; Compound        #mols
SPMP4 1
hv6apo_der2023chm_D580R_A 1
hv6apo_der2023chm_D580R_B 1
hv6apo_der2023chm_D580R_C 1
hv6apo_der2023chm_D580R_D 1
POPC 583
SOL 61581
CL 158
NA 166
CL 4

[intermolecular_interactions]
[bonds]
8793 18658 6 1.07056 1000.0

8793 18710 6 1.31969 1000.0

8793 18756 6 1.75421 1000.0

8845 18658 6 0.698309 1000.0

8845 18710 6 1.01168 1000.0

8845 18756 6 1.44665 1000.0

8891 18658 6 0.787687 1000.0

8891 18710 6 1.09167 1000.0

8891 18756 6 1.42631 1000.0

8793 28523 6 1.50761 1000.0

8793 28575 6 1.40737 1000.0

8793 28621 6 1.65309 1000.0

8845 28523 6 1.40709 1000.0

8845 28575 6 1.42541 1000.0

8845 28621 6 1.73021 1000.0

8891 28523 6 1.6555 1000.0

8891 28575 6 1.73274 1000.0

8891 28621 6 2.01417 1000.0

8793 38388 6 1.06025 1000.0

8793 38440 6 0.687294 1000.0

8793 38486 6 0.780314 1000.0

8845 38388 6 1.3103 1000.0

8845 38440 6 1.00332 1000.0

8845 38486 6 1.0862 1000.0

8891 38388 6 1.74754 1000.0

8891 38440 6 1.44128 1000.0

8891 38486 6 1.4229 1000.0

18658 28523 6 1.06591 1000.0

18658 28575 6 1.31664 1000.0

18658 28621 6 1.75187 1000.0

18710 28523 6 0.695143 1000.0

18710 28575 6 1.01044 1000.0

18710 28621 6 1.44591 1000.0

18756 28523 6 0.78923 1000.0

18756 28575 6 1.09305 1000.0

18756 28621 6 1.4278 1000.0

18658 38388 6 1.50784 1000.0

18658 38440 6 1.4091 1000.0

18658 38486 6 1.65872 1000.0

18710 38388 6 1.41027 1000.0

18710 38440 6 1.43029 1000.0

18710 38486 6 1.73801 1000.0

18756 38388 6 1.65964 1000.0

18756 38440 6 1.73781 1000.0

18756 38486 6 2.02122 1000.0

28523 38388 6 1.06775 1000.0

28523 38440 6 1.31825 1000.0

28523 38486 6 1.75484 1000.0

28575 38388 6 0.697402 1000.0

28575 38440 6 1.01314 1000.0

28575 38486 6 1.44962 1000.0

28621 38388 6 0.788287 1000.0

28621 38440 6 1.09419 1000.0

28621 38486 6 1.42991 1000.0

