;Include forcefield parameters
#include "../../INDATA/charmm_CAM2020.ff/forcefield.itp"

;EXTRA inludes if needed
#include "../../INDATA/extra.itp"

;Include component topologies
#include "../../INDATA/SPMP4.itp"
#include "../../INDATA/hv6apo_der2023chm_D580R_A.itp"
#include "../../INDATA/hv6apo_der2023chm_D580R_B.itp"
#include "../../INDATA/hv6apo_der2023chm_D580R_C.itp"
#include "../../INDATA/hv6apo_der2023chm_D580R_D.itp"
#include "../../INDATA/charmm_CAM2020.ff/popc.itp"
#include "../../INDATA/charmm_CAM2020.ff/ions.itp"
#include "../../INDATA/charmm_CAM2020.ff/tip3p.itp"



[ system ]
; Name
SPMP4_hv6apo_der2023chm_D580R_A_hv6apo_der2023chm_D580R_B_hv6apo_der2023chm_D580R_C_hv6apo_der2023chm_D580R_D_POPC_SOL_CL_NA_CL

[ molecules ]
; Compound        #mols
SPMP4 1
hv6apo_der2023chm_D580R_A 1
hv6apo_der2023chm_D580R_B 1
hv6apo_der2023chm_D580R_C 1
hv6apo_der2023chm_D580R_D 1
POPC 582
SOL 61524
CL 158
NA 166
CL 4

[intermolecular_interactions]
[bonds]
8793 18658 6 1.07063 1000.0

8793 18710 6 1.31935 1000.0

8793 18756 6 1.75413 1000.0

8845 18658 6 0.699154 1000.0

8845 18710 6 1.01214 1000.0

8845 18756 6 1.44738 1000.0

8891 18658 6 0.788069 1000.0

8891 18710 6 1.09146 1000.0

8891 18756 6 1.42638 1000.0

8793 28523 6 1.50704 1000.0

8793 28575 6 1.40647 1000.0

8793 28621 6 1.65289 1000.0

8845 28523 6 1.40756 1000.0

8845 28575 6 1.42554 1000.0

8845 28621 6 1.73074 1000.0

8891 28523 6 1.65549 1000.0

8891 28575 6 1.73249 1000.0

8891 28621 6 2.01427 1000.0

8793 38388 6 1.0602 1000.0

8793 38440 6 0.687242 1000.0

8793 38486 6 0.780154 1000.0

8845 38388 6 1.31095 1000.0

8845 38440 6 1.00381 1000.0

8845 38486 6 1.08593 1000.0

8891 38388 6 1.74795 1000.0

8891 38440 6 1.44168 1000.0

8891 38486 6 1.42278 1000.0

18658 28523 6 1.06554 1000.0

18658 28575 6 1.31624 1000.0

18658 28621 6 1.75159 1000.0

18710 28523 6 0.695589 1000.0

18710 28575 6 1.01083 1000.0

18710 28621 6 1.44612 1000.0

18756 28523 6 0.789713 1000.0

18756 28575 6 1.0937 1000.0

18756 28621 6 1.42801 1000.0

18658 38388 6 1.50814 1000.0

18658 38440 6 1.40961 1000.0

18658 38486 6 1.65865 1000.0

18710 38388 6 1.41087 1000.0

18710 38440 6 1.43089 1000.0

18710 38486 6 1.73781 1000.0

18756 38388 6 1.66032 1000.0

18756 38440 6 1.73858 1000.0

18756 38486 6 2.02125 1000.0

28523 38388 6 1.06773 1000.0

28523 38440 6 1.31837 1000.0

28523 38486 6 1.75432 1000.0

28575 38388 6 0.697008 1000.0

28575 38440 6 1.01283 1000.0

28575 38486 6 1.44876 1000.0

28621 38388 6 0.788453 1000.0

28621 38440 6 1.09457 1000.0

28621 38486 6 1.42993 1000.0

