;Include forcefield parameters
#include "../../INDATA/charmm_CAM2020.ff/forcefield.itp"

;EXTRA inludes if needed
#include "../../INDATA/extra.itp"

;Include component topologies
#include "../../INDATA/SPMP4.itp"
#include "../../INDATA/hv6apo_der2023chm_A.itp"
#include "../../INDATA/hv6apo_der2023chm_B.itp"
#include "../../INDATA/hv6apo_der2023chm_C.itp"
#include "../../INDATA/hv6apo_der2023chm_D.itp"
#include "../../INDATA/charmm_CAM2020.ff/popc.itp"
#include "../../INDATA/charmm_CAM2020.ff/ions.itp"
#include "../../INDATA/charmm_CAM2020.ff/tip3p.itp"


[ system ]
; Name
SPMP4_SPMP4_hv6apo_der2023chm_A_hv6apo_der2023chm_B_hv6apo_der2023chm_C_hv6apo_der2023chm_D_POPC_SOL_CL_NA_CL_CL

[ molecules ]
; Compound        #mols
SPMP4 1
SPMP4 1
hv6apo_der2023chm_A 1
hv6apo_der2023chm_B 1
hv6apo_der2023chm_C 1
hv6apo_der2023chm_D 1
POPC 583
SOL 61559
CL 150
NA 166
CL 4
CL 4

[intermolecular_interactions]
[bonds]
8837 18690 6 1.07071 1000.0

8837 18742 6 1.31951 1000.0

8837 18788 6 1.75395 1000.0

8889 18690 6 0.699271 1000.0

8889 18742 6 1.01257 1000.0

8889 18788 6 1.44749 1000.0

8935 18690 6 0.787687 1000.0

8935 18742 6 1.09167 1000.0

8935 18788 6 1.42631 1000.0

8837 28543 6 1.50701 1000.0

8837 28595 6 1.40599 1000.0

8837 28641 6 1.65221 1000.0

8889 28543 6 1.40767 1000.0

8889 28595 6 1.42541 1000.0

8889 28641 6 1.73033 1000.0

8935 28543 6 1.6555 1000.0

8935 28595 6 1.73262 1000.0

8935 28641 6 2.01417 1000.0

8837 38396 6 1.06025 1000.0

8837 38448 6 0.686448 1000.0

8837 38494 6 0.779758 1000.0

8889 38396 6 1.31109 1000.0

8889 38448 6 1.00332 1000.0

8889 38494 6 1.08547 1000.0

8935 38396 6 1.74846 1000.0

8935 38448 6 1.44176 1000.0

8935 38494 6 1.42291 1000.0

18690 28543 6 1.06591 1000.0

18690 28595 6 1.31683 1000.0

18690 28641 6 1.75187 1000.0

18742 28543 6 0.695143 1000.0

18742 28595 6 1.01091 1000.0

18742 28641 6 1.44591 1000.0

18788 28543 6 0.789229 1000.0

18788 28595 6 1.09378 1000.0

18788 28641 6 1.4278 1000.0

18690 38396 6 1.50863 1000.0

18690 38448 6 1.40991 1000.0

18690 38494 6 1.65872 1000.0

18742 38396 6 1.41085 1000.0

18742 38448 6 1.43125 1000.0

18742 38494 6 1.73801 1000.0

18788 38396 6 1.66 1000.0

18788 38448 6 1.73878 1000.0

18788 38494 6 2.02122 1000.0

28543 38396 6 1.06789 1000.0

28543 38448 6 1.31922 1000.0

28543 38494 6 1.75484 1000.0

28595 38396 6 0.696322 1000.0

28595 38448 6 1.01314 1000.0

28595 38494 6 1.44878 1000.0

28641 38396 6 0.787769 1000.0

28641 38448 6 1.09481 1000.0

28641 38494 6 1.42991 1000.0

