;Include forcefield parameters
#include "../../INDATA/charmm_CAM2020.ff/forcefield.itp"

;EXTRA inludes if needed
#include "../../INDATA/extra.itp"

;Include component topologies
#include "../../INDATA/SPMP4.itp"
#include "../../INDATA/hv6apo_der2023chm_T539V_A.itp"
#include "../../INDATA/hv6apo_der2023chm_T539V_B.itp"
#include "../../INDATA/hv6apo_der2023chm_T539V_C.itp"
#include "../../INDATA/hv6apo_der2023chm_T539V_D.itp"
#include "../../INDATA/charmm_CAM2020.ff/popc.itp"
#include "../../INDATA/charmm_CAM2020.ff/ions.itp"
#include "../../INDATA/charmm_CAM2020.ff/tip3p.itp"



[ system ]
; Name
SPMP4_hv6apo_der2023chm_T539V_A_hv6apo_der2023chm_T539V_B_hv6apo_der2023chm_T539V_C_hv6apo_der2023chm_T539V_D_POPC_SOL_CL_NA_CL

[ molecules ]
; Compound        #mols
SPMP4 1
hv6apo_der2023chm_T539V_A 1
hv6apo_der2023chm_T539V_B 1
hv6apo_der2023chm_T539V_C 1
hv6apo_der2023chm_T539V_D 1
POPC 584
SOL 61545
CL 150
NA 166
CL 4

[intermolecular_interactions]
[bonds]
8795 18650 6 1.07063 1000.0

8795 18702 6 1.31935 1000.0

8795 18748 6 1.75413 1000.0

8847 18650 6 0.699154 1000.0

8847 18702 6 1.01214 1000.0

8847 18748 6 1.44738 1000.0

8893 18650 6 0.788069 1000.0

8893 18702 6 1.09146 1000.0

8893 18748 6 1.42638 1000.0

8795 28505 6 1.50704 1000.0

8795 28557 6 1.40647 1000.0

8795 28603 6 1.65289 1000.0

8847 28505 6 1.40756 1000.0

8847 28557 6 1.42554 1000.0

8847 28603 6 1.73074 1000.0

8893 28505 6 1.65549 1000.0

8893 28557 6 1.73249 1000.0

8893 28603 6 2.01427 1000.0

8795 38360 6 1.0602 1000.0

8795 38412 6 0.687242 1000.0

8795 38458 6 0.780155 1000.0

8847 38360 6 1.31095 1000.0

8847 38412 6 1.00381 1000.0

8847 38458 6 1.08593 1000.0

8893 38360 6 1.74795 1000.0

8893 38412 6 1.44168 1000.0

8893 38458 6 1.42278 1000.0

18650 28505 6 1.06554 1000.0

18650 28557 6 1.31624 1000.0

18650 28603 6 1.75159 1000.0

18702 28505 6 0.695589 1000.0

18702 28557 6 1.01083 1000.0

18702 28603 6 1.44612 1000.0

18748 28505 6 0.789712 1000.0

18748 28557 6 1.0937 1000.0

18748 28603 6 1.42801 1000.0

18650 38360 6 1.50814 1000.0

18650 38412 6 1.40961 1000.0

18650 38458 6 1.65865 1000.0

18702 38360 6 1.41087 1000.0

18702 38412 6 1.43089 1000.0

18702 38458 6 1.73781 1000.0

18748 38360 6 1.66032 1000.0

18748 38412 6 1.73858 1000.0

18748 38458 6 2.02125 1000.0

28505 38360 6 1.06773 1000.0

28505 38412 6 1.31837 1000.0

28505 38458 6 1.75432 1000.0

28557 38360 6 0.697008 1000.0

28557 38412 6 1.01283 1000.0

28557 38458 6 1.44876 1000.0

28603 38360 6 0.788453 1000.0

28603 38412 6 1.09457 1000.0

28603 38458 6 1.42993 1000.0

